                               Psi4 1.2.1 release

  ==> Input File <==

--------------------------------------------------------------------------
molecule He {
	He
}

set basis sto-3g

energy('hf')
--------------------------------------------------------------------------

    Molecular point group: d2h
    Geometry (in Angstrom), charge = 0, multiplicity = 1:

       Center              X                  Y                   Z               Mass
    ------------   -----------------  -----------------  -----------------  -----------------
         HE           0.000000000000     0.000000000000     0.000000000000     4.002603254150

  Charge       = 0
  Multiplicity = 1
  Basis Set: STO-3G
    Blend: STO-3G
  Basis Set: (STO-3G AUX)
    Blend: DEF2-SVP-JKFIT

    Orbital Energies [Eh]
    ---------------------

    Doubly Occupied:

       1Ag    -0.876165

  @DF-RHF Final Energy:    -2.80791335449294

   => Energetics <=

    Nuclear Repulsion Energy =              0.0000000000000000
    One-Electron Energy =                  -3.8634969002750466
    Two-Electron Energy =                   1.0555835457821066
    Total Energy =                         -2.8079133544929400

  Dipole Moment: [D]
     X:     0.0000      Y:     0.0000      Z:     0.0000     Total:     0.0000

*** Psi4 exiting successfully. Buy a developer a beer!
