                               Psi4 1.2.1 release

  ==> Input File <==

--------------------------------------------------------------------------
D = 0.7116232464929859

molecule Hion {
	1 2
	H
	H 1 D
}
Hion.D = D

set basis sto-3g
set reference uhf

energy('scf', molecule=Hion)
--------------------------------------------------------------------------

    Molecular point group: d2h

    Geometry (in Angstrom), charge = 1, multiplicity = 2:

       Center              X                  Y                   Z               Mass
    ------------   -----------------  -----------------  -----------------  -----------------
         H            0.000000000000     0.000000000000    -0.355811623246     1.007825032070
         H            0.000000000000     0.000000000000     0.355811623246     1.007825032070

  Charge       = 1
  Multiplicity = 2
  Basis Set: STO-3G
    Blend: STO-3G
  Basis Set: (STO-3G AUX)
    Blend: DEF2-SVP-JKFIT

    Orbital Energies [Eh]
    ---------------------

    Alpha Occupied:

       1Ag    -1.270649

    Alpha Virtual:

       1B1u    0.032566

    Beta Occupied:

    Beta Virtual:

       1Ag    -0.590501     1B1u    0.212115

    Final Occupation by Irrep:
             Ag   B1g   B2g   B3g    Au   B1u   B2u   B3u
    DOCC [     0,    0,    0,    0,    0,    0,    0,    0 ]
    SOCC [     1,    0,    0,    0,    0,    0,    0,    0 ]

  Energy converged.

  @DF-UHF Final Energy:    -0.52702876420193

   => Energetics <=

    Nuclear Repulsion Energy =              0.7436199016795554
    One-Electron Energy =                  -1.2706486658814855
    Two-Electron Energy =                   0.0000000000000001
    Total Energy =                         -0.5270287642019300

  UHF NO Occupations:
  HONO-0 :    1 Ag 1.0000000
  LUNO+0 :    1B1u 0.0000000

Properties will be evaluated at   0.000000,   0.000000,   0.000000 [a0]

Properties computed using the SCF density matrix

  Nuclear Dipole Moment: [e a0]
     X:     0.0000      Y:     0.0000      Z:     0.0000

  Electronic Dipole Moment: [e a0]
     X:     0.0000      Y:     0.0000      Z:     0.0000

  Dipole Moment: [e a0]
     X:     0.0000      Y:     0.0000      Z:     0.0000     Total:     0.0000

  Dipole Moment: [D]
     X:     0.0000      Y:     0.0000      Z:     0.0000     Total:     0.0000

*** tstop() called on xAulasC16A05 at Tue Oct  2 15:56:16 2018
Module time:
	user time   =       0.17 seconds =       0.00 minutes
	system time =       0.00 seconds =       0.00 minutes
	total time  =          0 seconds =       0.00 minutes
Total time:
	user time   =       0.17 seconds =       0.00 minutes
	system time =       0.00 seconds =       0.00 minutes
	total time  =          0 seconds =       0.00 minutes

    Psi4 stopped on: Tuesday, 02 October 2018 03:56PM
    Psi4 wall time for execution: 0:00:00.21

*** Psi4 exiting successfully. Buy a developer a beer!
