                               Psi4 1.2.1 release

  ==> Input File <==

--------------------------------------------------------------------------
import numpy as np

dmin = 0.1
dmax = 1.5
pt_density = 500

molecule H {
	H
	H 1 d
}

set basis sto-3g

print('\# Distance (Angstrom)	Energy (Hartree)')
for r in np.linspace(dmin, dmax, pt_density):
	H.d = r
	E = energy('hf', molecule=H)
	print('{}	{}'.format(r, E))
--------------------------------------------------------------------------

    Molecular point group: d2h
  Charge       = 0
  Multiplicity = 1
  Basis Set: STO-3G
    Blend: STO-3G
  Basis Set: (STO-3G AUX)
    Blend: DEF2-SVP-JKFIT
  @DF-RHF Final Energy:     2.71580942596252
    Total Energy =                          2.7158094259625241
    Molecular point group: d2h
  Basis Set: STO-3G
    Blend: STO-3G
  Basis Set: (STO-3G AUX)
    Blend: DEF2-SVP-JKFIT
  @DF-RHF Final Energy:     2.57336255067197
    Total Energy =                          2.5733625506719711
  Basis Set: STO-3G
    Blend: STO-3G
  Basis Set: (STO-3G AUX)
    Blend: DEF2-SVP-JKFIT
  @DF-RHF Final Energy:     2.43863491084689
    Total Energy =                          2.4386349108468881
  Basis Set: STO-3G
    Blend: STO-3G
  Basis Set: (STO-3G AUX)
    Blend: DEF2-SVP-JKFIT
  @DF-RHF Final Energy:     2.31103022183697
    Total Energy =                          2.3110302218369672
  @DF-RHF Final Energy:     2.19001229419102
    Total Energy =                          2.1900122941910154
  @DF-RHF Final Energy:     2.07509763992299
    Total Energy =                          2.0750976399229923
  @DF-RHF Final Energy:     1.96584914415714
    Total Energy =                          1.9658491441571417
  @DF-RHF Final Energy:     1.86187062726399
    Total Energy =                          1.8618706272639907
  @DF-RHF Final Energy:     1.76280215465965
    Total Energy =                          1.7628021546596468
  @DF-RHF Final Energy:     1.66831597703346
    Total Energy =                          1.6683159770334637
  @DF-RHF Final Energy:     1.57811300431902
    Total Energy =                          1.5781130043190197
  @DF-RHF Final Energy:     1.49191973330468
    Total Energy =                          1.4919197333046843
  @DF-RHF Final Energy:     1.40948556223192
    Total Energy =                          1.4094855622319176
  @DF-RHF Final Energy:     1.33058043669061
    Total Energy =                          1.3305804366906122
  @DF-RHF Final Energy:     1.25499278009484
    Total Energy =                          1.2549927800948359
  @DF-RHF Final Energy:     1.18252766940377
    Total Energy =                          1.1825276694037714
  @DF-RHF Final Energy:     1.11300522284346
    Total Energy =                          1.1130052228434626
  @DF-RHF Final Energy:     1.04625917143934
    Total Energy =                          1.0462591714393432
  @DF-RHF Final Energy:     0.98213559037213
    Total Energy =                          0.9821355903721349
  @DF-RHF Final Energy:     0.92049176968203
    Total Energy =                          0.9204917696820333
  @DF-RHF Final Energy:    -0.92710315210473
    Total Energy =                         -0.9271031521047275
  @DF-RHF Final Energy:    -0.92624356947481
    Total Energy =                         -0.9262435694748137
  @DF-RHF Final Energy:    -0.92538499323577
    Total Energy =                         -0.9253849932357728
  @DF-RHF Final Energy:    -0.92452743298011
    Total Energy =                         -0.9245274329801118
  @DF-RHF Final Energy:    -0.92367089818706
    Total Energy =                         -0.9236708981870608
  @DF-RHF Final Energy:    -0.92281539822343
    Total Energy =                         -0.9228153982234328
  @DF-RHF Final Energy:    -0.92196094234450
    Total Energy =                         -0.9219609423444955
  @DF-RHF Final Energy:    -0.92110753969485
    Total Energy =                         -0.9211075396948484
  @DF-RHF Final Energy:    -0.92025519930929
    Total Energy =                         -0.9202551993092902
  @DF-RHF Final Energy:    -0.91940393011367
    Total Energy =                         -0.9194039301136719
  @DF-RHF Final Energy:    -0.91855374092577
    Total Energy =                         -0.9185537409257680
  @DF-RHF Final Energy:    -0.91770464045611
    Total Energy =                         -0.9177046404561072
  @DF-RHF Final Energy:    -0.91685663730883
    Total Energy =                         -0.9168566373088333
  @DF-RHF Final Energy:    -0.91600973998256
    Total Energy =                         -0.9160097399825617
  @DF-RHF Final Energy:    -0.91516395687118
    Total Energy =                         -0.9151639568711755
  @DF-RHF Final Energy:    -0.91431929626471
    Total Energy =                         -0.9143192962647134
  Basis Set: STO-3G
    Blend: STO-3G
  Basis Set: (STO-3G AUX)
    Blend: DEF2-SVP-JKFIT
  @DF-RHF Final Energy:    -0.91347576635016
    Total Energy =                         -0.9134757663501583
  Basis Set: STO-3G
    Blend: STO-3G
  Basis Set: (STO-3G AUX)
    Blend: DEF2-SVP-JKFIT
  @DF-RHF Final Energy:    -0.91263337521227
    Total Energy =                         -0.9126333752122673
  Multiplicity = 1
  Basis Set: STO-3G
    Blend: STO-3G
  Basis Set: (STO-3G AUX)
    Blend: DEF2-SVP-JKFIT
  @DF-RHF Final Energy:    -0.91179213083440
    Total Energy =                         -0.9117921308344011
    Molecular point group: d2h

    Geometry (in Angstrom), charge = 0, multiplicity = 1:

       Center              X                  Y                   Z               Mass
    ------------   -----------------  -----------------  -----------------  -----------------
         H            0.000000000000     0.000000000000    -0.750000000000     1.007825032070
         H            0.000000000000     0.000000000000     0.750000000000     1.007825032070

  Charge       = 0
  Multiplicity = 1
  Basis Set: STO-3G
    Blend: STO-3G
  Basis Set: (STO-3G AUX)
    Blend: DEF2-SVP-JKFIT

    Orbital Energies [Eh]
    ---------------------

    Doubly Occupied:

       1Ag    -0.355556

  @DF-RHF Final Energy:    -0.91095204109934

   => Energetics <=

    Nuclear Repulsion Energy =              0.3527848057266665
    One-Electron Energy =                  -1.8163617406497057
    Two-Electron Energy =                   0.5526248938236956
    Total Energy =                         -0.9109520410993436

  Dipole Moment: [D]
     X:     0.0000      Y:     0.0000      Z:     0.0000     Total:     0.0000

*** Psi4 exiting successfully. Buy a developer a beer!
