                               Psi4 1.2.1 release

  ==> Input File <==

--------------------------------------------------------------------------
import numpy as np

rmin = 0.1
rmax = 1.5
pt_density = 300

molecule HeH {
	1 1
	he
	h 1 d
}

set basis sto-3g

print('\# d (Angstrom)	E (Hartree)')
for r in np.linspace(rmin, rmax, pt_density):
	HeH.d = r
	E = energy('hf', molecule=HeH)
	print('{}	{}'.format(r, E))
--------------------------------------------------------------------------

    Molecular point group: c2v
  Charge       = 1
  Multiplicity = 1
  Basis Set: STO-3G
    Blend: STO-3G
  Basis Set: (STO-3G AUX)
    Blend: DEF2-SVP-JKFIT
  @DF-RHF Final Energy:     4.34754387462494
    Total Energy =                          4.3475438746249377
    Molecular point group: c2v
  Basis Set: STO-3G
    Blend: STO-3G
  Basis Set: (STO-3G AUX)
    Blend: DEF2-SVP-JKFIT
  @DF-RHF Final Energy:     3.90269018193871
    Total Energy =                          3.9026901819387128
  Basis Set: STO-3G
    Blend: STO-3G
  Basis Set: (STO-3G AUX)
    Blend: DEF2-SVP-JKFIT
  @DF-RHF Final Energy:     3.49813793725394
    Total Energy =                          3.4981379372539445
  Basis Set: STO-3G
    Blend: STO-3G
  Basis Set: (STO-3G AUX)
    Blend: DEF2-SVP-JKFIT
  @DF-RHF Final Energy:     3.12884315461993
    Total Energy =                          3.1288431546199327
  @DF-RHF Final Energy:     2.79055933022371
    Total Energy =                          2.7905593302237102
  @DF-RHF Final Energy:     2.47968695858376
    Total Energy =                          2.4796869585837626
  @DF-RHF Final Energy:     2.19315584175144
    Total Energy =                          2.1931558417514410
  @DF-RHF Final Energy:     1.92833212604123
    Total Energy =                          1.9283321260412274
  @DF-RHF Final Energy:     1.68294419780415
    Total Energy =                          1.6829441978041513
  @DF-RHF Final Energy:     1.45502311447646
    Total Energy =                          1.4550231144764558
  @DF-RHF Final Energy:     1.24285434793112
    Total Energy =                          1.2428543479311212
  @DF-RHF Final Energy:     1.04493841151788
    Total Energy =                          1.0449384115178801
  @DF-RHF Final Energy:     0.85995852214244
    Total Energy =                          0.8599585221424442
  @DF-RHF Final Energy:     0.68675387685570
    Total Energy =                          0.6867538768557044
  @DF-RHF Final Energy:     0.52429744272272
    Total Energy =                          0.5242974427227216
  @DF-RHF Final Energy:     0.37167739919978
    Total Energy =                          0.3716773991997790
  @DF-RHF Final Energy:     0.22808155498894
    Total Energy =                          0.2280815549889432
  @DF-RHF Final Energy:     0.09278420141561
    Total Energy =                          0.0927842014156091
  @DF-RHF Final Energy:    -0.03486502739292
    Total Energy =                         -0.0348650273929216
  @DF-RHF Final Energy:    -0.15545063297243
    Total Energy =                         -0.1554506329724337
  @DF-RHF Final Energy:    -2.82797352696840
    Total Energy =                         -2.8279735269683970
  @DF-RHF Final Energy:    -2.82772076686165
    Total Energy =                         -2.8277207668616464
  @DF-RHF Final Energy:    -2.82747010145981
    Total Energy =                         -2.8274701014598054
  @DF-RHF Final Energy:    -2.82722153961489
    Total Energy =                         -2.8272215396148868
  @DF-RHF Final Energy:    -2.82697508932046
    Total Energy =                         -2.8269750893204622
  @DF-RHF Final Energy:    -2.82673075773684
    Total Energy =                         -2.8267307577368359
  @DF-RHF Final Energy:    -2.82648855121545
    Total Energy =                         -2.8264885512154518
  @DF-RHF Final Energy:    -2.82624847532261
    Total Energy =                         -2.8262484753226094
  @DF-RHF Final Energy:    -2.82601053486250
    Total Energy =                         -2.8260105348624998
  @DF-RHF Final Energy:    -2.82577473389953
    Total Energy =                         -2.8257747338995336
  @DF-RHF Final Energy:    -2.82554107578008
    Total Energy =                         -2.8255410757800767
  @DF-RHF Final Energy:    -2.82530956315351
    Total Energy =                         -2.8253095631535077
  @DF-RHF Final Energy:    -2.82508019799274
    Total Energy =                         -2.8250801979927394
  @DF-RHF Final Energy:    -2.82485298161408
    Total Energy =                         -2.8248529816140771
  @DF-RHF Final Energy:    -2.82462791469658
    Total Energy =                         -2.8246279146965820
  @DF-RHF Final Energy:    -2.82440499730088
    Total Energy =                         -2.8244049973008787
  Basis Set: STO-3G
    Blend: STO-3G
  Basis Set: (STO-3G AUX)
    Blend: DEF2-SVP-JKFIT
  @DF-RHF Final Energy:    -2.82418422888741
    Total Energy =                         -2.8241842288874119
  Basis Set: STO-3G
    Blend: STO-3G
  Basis Set: (STO-3G AUX)
    Blend: DEF2-SVP-JKFIT
  @DF-RHF Final Energy:    -2.82396560833424
    Total Energy =                         -2.8239656083342446
  Multiplicity = 1
  Basis Set: STO-3G
    Blend: STO-3G
  Basis Set: (STO-3G AUX)
    Blend: DEF2-SVP-JKFIT
  @DF-RHF Final Energy:    -2.82374913395434
    Total Energy =                         -2.8237491339543412
    Molecular point group: c2v

    Geometry (in Angstrom), charge = 1, multiplicity = 1:

       Center              X                  Y                   Z               Mass
    ------------   -----------------  -----------------  -----------------  -----------------
         HE           0.000000000000     0.000000000000    -0.301718228811     4.002603254150
         H            0.000000000000     0.000000000000     1.198281771189     1.007825032070

  Charge       = 1
  Multiplicity = 1
  Basis Set: STO-3G
    Blend: STO-3G
  Basis Set: (STO-3G AUX)
    Blend: DEF2-SVP-JKFIT

    Orbital Energies [Eh]
    ---------------------

    Doubly Occupied:

       1A1    -1.261874

  @DF-RHF Final Energy:    -2.82353480351238

   => Energetics <=

    Nuclear Repulsion Energy =              0.7055696114533332
    One-Electron Energy =                  -4.5344608481580044
    Two-Electron Energy =                   1.0053564331922955
    Total Energy =                         -2.8235348035123762

  Dipole Moment: [D]
     X:     0.0000      Y:     0.0000      Z:     5.3171     Total:     5.3171

*** Psi4 exiting successfully. Buy a developer a beer!
